<?xml version="1.0"?>
<VTKFile type="UnstructuredGrid" version="0.1" byte_order="LittleEndian">
	<UnstructuredGrid>
		<Piece NumberOfPoints="12745" NumberOfCells="60608">
			<CellData />
			<Points>
				<DataArray type="Float32" NumberOfComponents="3" format="ascii">0.206854 0.14145 0.10452 0.206854 0.14145 0.107377 0.206854 0.14145 0.110234 0.206854 0.14145 0.113091 0.206854 0.14145 0.115949 0.206854 0.14145 0.118806 0.206854 0.14145 0.121663 0.206854 0.14145 0.12452 0.208406 0.141315 0.12452 0.208406 0.141315 0.121663 0.208406 0.141315 0.118806 0.208406 0.141315 0.115949 0.208406 0.141315 0.113091 0.208406 0.141315 0.110234 0.208406 0.141315 0.107377 0.208406 0.141315 0.10452 0.206865 0.149882 0.12452 0.206865 0.149882 0.121663 0.206865 0.149882 0.118806 0.206865 0.149882 0.115949 0.206865 0.149882 0.113091 0.206865 0.149882 0.110234 0.206865 0.149882 0.107377 0.206865 0.149882 0.10452 0.208418 0.150013 0.10452 0.208418 0.150013 0.107377 0.208418 0.150013 0.110234 0.208418 0.150013 0.113091 0.208418 0.150013 0.115949 0.208418 0.150013 0.118806 0.208418 0.150013 0.121663 0.208418 0.150013 0.12452 0.206293 0.154278 0.10452 0.206293 0.154278 0.107377 0.206293 0.154278 0.110234 0.206293 0.154278 0.113091 0.206293 0.154278 0.115949 0.206293 0.154278 0.118806 0.206293 0.154278 0.121663 0.206293 0.154278 0.12452 0.207827 0.154549 0.12452 0.207827 0.154549 0.121663 0.207827 0.154549 0.118806 0.207827 0.154549 0.115949 0.207827 0.154549 0.113091 0.207827 0.154549 0.110234 0.207827 0.154549 0.107377 0.207827 0.154549 0.10452 0.204122 0.162425 0.12452 0.204122 0.162425 0.121663 0.204122 0.162425 0.118806 0.204122 0.162425 0.115949 0.204122 0.162425 0.113091 0.204122 0.162425 0.110234 0.204122 0.162425 0.107377 0.204122 0.162425 0.10452 0.205587 0.162954 0.10452 0.205587 0.162954 0.107377 0.205587 0.162954 0.110234 0.205587 0.162954 0.113091 0.205587 0.162954 0.115949 0.205587 0.162954 0.118806 0.205587 0.162954 0.121663 0.205587 0.162954 0.12452 0.203843 0.167182 0.12452 0.203843 0.167182 0.121663 0.203843 0.167182 0.118806 0.203843 0.167182 0.115949 0.203843 0.167182 0.113091 0.203843 0.167182 0.110234 0.203843 0.167182 0.107377 0.203843 0.167182 0.10452 0.202431 0.166523 0.10452 0.202431 0.166523 0.107377 0.202431 0.166523 0.110234 0.202431 0.166523 0.113091 0.202431 0.166523 0.115949 0.202431 0.166523 0.118806 0.202431 0.166523 0.121663 0.202431 0.166523 0.12452 0.198225 0.173831 0.12452 0.198225 0.173831 0.121663 0.198225 0.173831 0.118806 0.198225 0.173831 0.115949 0.198225 0.173831 0.113091 0.198225 0.173831 0.110234 0.198225 0.173831 0.107377 0.198225 0.173831 0.10452 0.199504 0.174721 0.10452 0.199504 0.174721 0.107377 0.199504 0.174721 0.110234 0.199504 0.174721 0.113091 0.199504 0.174721 0.115949 0.199504 0.174721 0.118806 0.199504 0.174721 0.121663 0.199504 0.174721 0.12452 0.196725 0.178354 0.12452 0.196725 0.178354 0.121663 0.196725 0.178354 0.118806 0.196725 0.178354 0.115949 0.196725 0.178354 0.113091 0.196725 0.178354 0.110234 0.196725 0.178354 0.107377 0.196725 0.178354 0.10452 0.195531 0.177352 0.10452 0.195531 0.177352 0.107377 0.195531 0.177352 0.110234 0.195531 0.177352 0.113091 0.195531 0.177352 0.115949 0.195531 0.177352 0.118806 0.195531 0.177352 0.121663 0.195531 0.177352 0.12452 0.189577 0.183322 0.12452 0.189577 0.183322 0.121663 0.189577 0.183322 0.118806 0.189577 0.183322 0.115949 0.189577 0.183322 0.113091 0.189577 0.183322 0.110234 0.189577 0.183322 0.107377 0.189577 0.183322 0.10452 0.190582 0.184513 0.10452 0.190582 0.184513 0.107377 0.190582 0.184513 0.110234 0.190582 0.184513 0.113091 0.190582 0.184513 0.115949 0.190582 0.184513 0.118806 0.190582 0.184513 0.121663 0.190582 0.184513 0.12452 0.186957 0.187302 0.12452 0.186957 0.187302 0.121663 0.186957 0.187302 0.118806 0.186957 0.187302 0.115949 0.186957 0.187302 0.113091 0.186957 0.187302 0.110234 0.186957 0.187302 0.107377 0.186957 0.187302 0.10452 0.186064 0.186026 0.10452 0.186064 0.186026 0.107377 0.186064 0.186026 0.110234 0.186064 0.186026 0.113091 0.186064 0.186026 0.115949 0.186064 0.186026 0.118806 0.186064 0.186026 0.121663 0.186064 0.186026 0.12452 0.178768 0.190251 0.12452 0.178768 0.190251 0.121663 0.178768 0.190251 0.118806 0.178768 0.190251 0.115949 0.178768 0.190251 0.113091 0.178768 0.190251 0.110234 0.178768 0.190251 0.107377 0.178768 0.190251 0.10452 0.17943 0.191662 0.10452 0.17943 0.191662 0.107377 0.17943 0.191662 0.110234 0.17943 0.191662 0.113091 0.17943 0.191662 0.115949 0.17943 0.191662 0.118806 0.17943 0.191662 0.121663 0.17943 0.191662 0.12452 0.175207 0.193418 0.12452 0.175207 0.193418 0.121663 0.175207 0.193418 0.118806 0.175207 0.193418 0.115949 0.175207 0.193418 0.113091 0.175207 0.193418 0.110234 0.175207 0.193418 0.107377 0.175207 0.193418 0.10452 0.174674 0.191953 0.10452 0.174674 0.191953 0.107377 0.174674 0.191953 0.110234 0.174674 0.191953 0.113091 0.174674 0.191953 0.115949 0.174674 0.191953 0.118806 0.174674 0.191953 0.121663 0.174674 0.191953 0.12452 0.166533 0.194147 0.12452 0.166533 0.194147 0.121663 0.166533 0.194147 0.118806 0.166533 0.194147 0.115949 0.166533 0.194147 0.113091 0.166533 0.194147 0.110234 0.166533 0.194147 0.107377 0.166533 0.194147 0.10452 0.166808 0.195681 0.10452 0.166808 0.195681 0.107377 0.166808 0.195681 0.110234 0.166808 0.195681 0.113091 0.166808 0.195681 0.115949 0.166808 0.195681 0.118806 0.166808 0.195681 0.121663 0.166808 0.195681 0.12452 0.162274 0.196284 0.12452 0.162274 0.196284 0.121663 0.162274 0.196284 0.118806 0.162274 0.196284 0.115949 0.162274 0.196284 0.113091 0.162274 0.196284 0.110234 0.162274 0.196284 0.107377 0.162274 0.196284 0.10452 0.162138 0.194731 0.10452 0.162138 0.194731 0.107377 0.162138 0.194731 0.110234 0.162138 0.194731 0.113091 0.162138 0.194731 0.115949 0.162138 0.194731 0.118806 0.162138 0.194731 0.121663 0.162138 0.194731 0.12452 0.153707 0.194743 0.12452 0.153707 0.194743 0.121663 0.153707 0.194743 0.118806 0.153707 0.194743 0.115949 0.153707 0.194743 0.113091 0.153707 0.194743 0.110234 0.153707 0.194743 0.107377 0.153707 0.194743 0.10452 0.153576 0.196296 0.10452 0.153576 0.196296 0.107377 0.153576 0.196296 0.110234 0.153576 0.196296 0.113091 0.153576 0.196296 0.115949 0.153576 0.196296 0.118806 0.153576 0.196296 0.121663 0.153576 0.196296 0.12452 0.14904 0.195705 0.12452 0.14904 0.195705 0.121663 0.14904 0.195705 0.118806 0.14904 0.195705 0.115949 0.14904 0.195705 0.113091 0.14904 0.195705 0.110234 0.14904 0.195705 0.107377 0.14904 0.195705 0.10452 0.149311 0.19417 0.10452 0.149311 0.19417 0.107377 0.149311 0.19417 0.110234 0.149311 0.19417 0.113091 0.149311 0.19417 0.115949 0.149311 0.19417 0.118806 0.149311 0.19417 0.121663 0.149311 0.19417 0.12452 0.141164 0.191999 0.12452 0.141164 0.191999 0.121663 0.141164 0.191999 0.118806 0.141164 0.191999 0.115949 0.141164 0.191999 0.113091 0.141164 0.191999 0.110234 0.141164 0.191999 0.107377 0.141164 0.191999 0.10452 0.140635 0.193465 0.10452 0.140635 0.193465 0.107377 0.140635 0.193465 0.110234 0.140635 0.193465 0.113091 0.140635 0.193465 0.115949 0.140635 0.193465 0.118806 0.140635 0.193465 0.121663 0.140635 0.193465 0.12452 0.136407 0.191721 0.12452 0.136407 0.191721 0.121663 0.136407 0.191721 0.118806 0.136407 0.191721 0.115949 0.136407 0.191721 0.113091 0.136407 0.191721 0.110234 0.136407 0.191721 0.107377 0.136407 0.191721 0.10452 0.137065 0.190308 0.10452 0.137065 0.190308 0.107377 0.137065 0.190308 0.110234 0.137065 0.190308 0.113091 0.137065 0.190308 0.115949 0.137065 0.190308 0.118806 0.137065 0.190308 0.121663 0.137065 0.190308 0.12452 0.129758 0.186103 0.12452 0.129758 0.186103 0.121663 0.129758 0.186103 0.118806 0.129758 0.186103 0.115949 0.129758 0.186103 0.113091 0.129758 0.186103 0.110234 0.129758 0.186103 0.107377 0.129758 0.186103 0.10452 0.128868 0.187382 0.10452 0.128868 0.187382 0.107377 0.128868 0.187382 0.110234 0.128868 0.187382 0.113091 0.128868 0.187382 0.115949 0.128868 0.187382 0.118806 0.128868 0.187382 0.121663 0.128868 0.187382 0.12452 0.125235 0.184602 0.12452 0.125235 0.184602 0.121663 0.125235 0.184602 0.118806 0.125235 0.184602 0.115949 0.125235 0.184602 0.113091 0.125235 0.184602 0.110234 0.125235 0.184602 0.107377 0.125235 0.184602 0.10452 0.126237 0.183409 0.10452 0.126237 0.183409 0.107377 0.126237 0.183409 0.110234 0.126237 0.183409 0.113091 0.126237 0.183409 0.115949 0.126237 0.183409 0.118806 0.126237 0.183409 0.121663 0.126237 0.183409 0.12452 0.120267 0.177455 0.12452 0.120267 0.177455 0.121663 0.120267 0.177455 0.118806 0.120267 0.177455 0.115949 0.120267 0.177455 0.113091 0.120267 0.177455 0.110234 0.120267 0.177455 0.107377 0.120267 0.177455 0.10452 0.119076 0.17846 0.10452 0.119076 0.17846 0.107377 0.119076 0.17846 0.110234 0.119076 0.17846 0.113091 0.119076 0.17846 0.115949 0.119076 0.17846 0.118806 0.119076 0.17846 0.121663 0.119076 0.17846 0.12452 0.116287 0.174835 0.12452 0.116287 0.174835 0.121663 0.116287 0.174835 0.118806 0.116287 0.174835 0.115949 0.116287 0.174835 0.113091 0.116287 0.174835 0.110234 0.116287 0.174835 0.107377 0.116287 0.174835 0.10452 0.117563 0.173941 0.10452 0.117563 0.173941 0.107377 0.117563 0.173941 0.110234 0.117563 0.173941 0.113091 0.117563 0.173941 0.115949 0.117563 0.173941 0.118806 0.117563 0.173941 0.121663 0.117563 0.173941 0.12452 0.113338 0.166646 0.12452 0.113338 0.166646 0.121663 0.113338 0.166646 0.118806 0.113338 0.166646 0.115949 0.113338 0.166646 0.113091 0.113338 0.166646 0.110234 0.113338 0.166646 0.107377 0.113338 0.166646 0.10452 0.111927 0.167308 0.10452 0.111927 0.167308 0.107377 0.111927 0.167308 0.110234 0.111927 0.167308 0.113091 0.111927 0.167308 0.115949 0.111927 0.167308 0.118806 0.111927 0.167308 0.121663 0.111927 0.167308 0.12452 0.110171 0.163085 0.12452 0.110171 0.163085 0.121663 0.110171 0.163085 0.118806 0.110171 0.163085 0.115949 0.110171 0.163085 0.113091 0.110171 0.163085 0.110234 0.110171 0.163085 0.107377 0.110171 0.163085 0.10452 0.111635 0.162552 0.10452 0.111635 0.162552 0.107377 0.111635 0.162552 0.110234 0.111635 0.162552 0.113091 0.111635 0.162552 0.115949 0.111635 
[...]
			<PointData>
				<DataArray Name="temperature" type="Float32" format="ascii">292.085 292.157 292.175 292.213 292.214 292.187 292.152 292.102 292.393 292.485 292.51 292.545 292.542 292.514 292.49 292.425 292.091 292.15 292.192 292.216 292.202 292.192 292.154 292.104 292.4 292.482 292.525 292.534 292.555 292.537 292.485 292.427 292.086 292.155 292.194 292.217 292.218 292.202 292.169 292.117 292.4 292.477 292.515 292.531 292.55 292.522 292.49 292.413 292.093 292.147 292.194 292.216 292.22 292.2 292.16 292.111 292.416 292.483 292.531 292.565 292.557 292.541 292.474 292.412 292.411 292.489 292.52 292.533 292.561 292.53 292.491 292.404 292.088 292.152 292.199 292.206 292.206 292.198 292.161 292.108 292.085 292.156 292.196 292.226 292.211 292.194 292.164 292.111 292.415 292.495 292.531 292.558 292.555 292.538 292.48 292.414 292.418 292.492 292.525 292.558 292.544 292.535 292.495 292.401 292.081 292.162 292.198 292.214 292.217 292.202 292.164 292.103 292.089 292.167 292.195 292.215 292.215 292.199 292.16 292.107 292.418 292.49 292.545 292.551 292.555 292.545 292.495 292.413 292.414 292.485 292.54 292.551 292.548 292.537 292.486 292.407 292.088 292.161 292.196 292.217 292.2 292.194 292.162 292.104 292.094 292.164 292.195 292.22 292.215 292.195 292.153 292.108 292.415 292.482 292.53 292.565 292.559 292.515 292.498 292.407 292.415 292.491 292.538 292.557 292.562 292.54 292.496 292.403 292.086 292.16 292.196 292.217 292.213 292.195 292.162 292.103 292.094 292.15 292.194 292.206 292.213 292.196 292.16 292.112 292.417 292.496 292.536 292.546 292.553 292.54 292.485 292.405 292.416 292.491 292.54 292.549 292.548 292.537 292.492 292.404 292.086 292.157 292.198 292.218 292.213 292.196 292.164 292.11 292.086 292.159 292.195 292.207 292.219 292.194 292.155 292.111 292.422 292.483 292.54 292.547 292.547 292.532 292.504 292.414 292.421 292.493 292.538 292.551 292.556 292.536 292.488 292.415 292.087 292.156 292.198 292.212 292.211 292.191 292.166 292.109 292.088 292.159 292.194 292.211 292.21 292.203 292.163 292.112 292.424 292.489 292.541 292.554 292.543 292.55 292.489 292.41 292.416 292.495 292.541 292.548 292.549 292.525 292.493 292.41 292.093 292.156 292.195 292.218 292.218 292.201 292.165 292.107 292.091 292.164 292.199 292.209 292.214 292.2 292.16 292.109 292.415 292.49 292.53 292.562 292.557 292.535 292.503 292.407 292.411 292.49 292.534 292.557 292.544 292.539 292.49 292.409 292.08 292.156 292.19 292.215 292.214 292.191 292.16 292.105 292.085 292.162 292.185 292.214 292.21 292.199 292.17 292.11 292.42 292.496 292.539 292.556 292.558 292.526 292.493 292.408 292.41 292.494 292.536 292.548 292.551 292.535 292.493 292.413 292.09 292.164 292.195 292.215 292.212 292.198 292.159 292.103 292.089 292.154 292.194 292.208 292.213 292.193 292.166 292.107 292.407 292.495 292.518 292.557 292.556 292.531 292.484 292.407 292.413 292.498 292.536 292.565 292.564 292.53 292.491 292.408 292.089 292.165 292.202 292.223 292.218 292.196 292.164 292.114 292.083 292.158 292.193 292.221 292.217 292.192 292.158 292.11 292.416 292.484 292.531 292.554 292.56 292.538 292.494 292.409 292.411 292.494 292.528 292.563 292.56 292.541 292.487 292.409 292.086 292.165 292.199 292.219 292.215 292.196 292.167 292.114 292.088 292.156 292.206 292.202 292.211 292.195 292.159 292.112 292.412 292.486 292.534 292.548 292.547 292.537 292.492 292.405 292.413 292.493 292.53 292.56 292.56 292.537 292.494 292.407 292.084 292.159 292.206 292.214 292.218 292.194 292.168 292.107 292.087 292.164 292.206 292.22 292.214 292.196 292.16 292.107 292.415 292.491 292.539 292.555 292.556 292.541 292.491 292.408 292.419 292.482 292.534 292.557 292.563 292.53 292.497 292.408 292.086 292.162 292.197 292.217 292.219 292.201 292.163 292.111 292.091 292.157 292.198 292.215 292.218 292.197 292.159 292.1 292.412 292.496 292.539 292.557 292.551 292.54 292.488 292.404 292.416 292.49 292.529 292.556 292.548 292.541 292.496 292.408 292.085 292.165 292.201 292.211 292.201 292.199 292.155 292.11 292.093 292.153 292.196 292.219 292.217 292.196 292.166 292.112 292.416 292.486 292.541 292.553 292.557 292.537 292.491 292.408 292.416 292.484 292.536 292.558 292.561 292.539 292.491 292.4 292.082 292.161 292.2 292.218 292.216 292.194 292.161 292.107 292.088 292.155 292.199 292.208 292.208 292.202 292.156 292.11 292.413 292.485 292.529 292.549 292.555 292.537 292.49 292.406 292.417 292.48 292.527 292.558 292.568 292.539 292.492 292.408 292.086 292.159 292.2 292.222 292.21 292.186 292.154 292.106 292.083 292.157 292.203 292.218 292.212 292.2 292.161 292.104 292.413 292.494 292.54 292.558 292.557 292.522 292.494 292.401 292.415 292.481 292.535 292.558 292.56 292.539 292.493 292.405 292.09 292.157 292.196 292.214 292.215 292.198 292.165 292.109 292.098 292.153 292.195 292.212 292.216 292.201 292.155 292.111 292.418 292.486 292.533 292.552 292.55 292.532 292.475 292.407 292.413 292.491 292.54 292.562 292.559 292.543 292.475 292.412 292.088 292.155 292.202 292.223 292.219 292.196 292.153 292.113 292.079 292.158 292.192 292.217 292.214 292.196 292.16 292.112 292.412 292.488 292.535 292.561 292.559 292.537 292.481 292.411 292.419 292.491 292.537 292.557 292.553 292.533 292.482 292.407 292.085 292.151 292.193 292.216 292.216 292.191 292.162 292.115 292.092 292.149 292.197 292.219 292.21 292.195 292.167 292.116 292.421 292.489 292.53 292.556 292.556 292.535 292.473 292.414 292.42 292.484 292.534 292.545 292.555 292.54 292.49 292.405 292.086 292.156 292.196 292.207 292.215 292.199 292.153 292.107 292.094 292.159 292.194 292.215 292.216 292.199 292.158 292.101 292.413 292.491 292.541 292.561 292.56 292.532 292.47 292.416 292.416 292.482 292.538 292.564 292.56 292.54 292.49 292.406 292.083 292.162 292.199 292.216 292.214 292.199 292.153 292.113 292.085 292.16 292.197 292.212 292.203 292.193 292.157 292.111 292.415 292.487 292.53 292.558 292.557 292.537 292.49 292.412 292.413 292.49 292.531 292.547 292.554 292.534 292.488 292.407 292.083 292.155 292.194 292.213 292.216 292.19 292.155 292.108 293.323 293.079 292.783 292.029 292.798 293.095 293.344 293.316 293.093 292.783 292.027 292.8 293.091 293.345 293.318 293.093 292.795 292.031 292.81 293.091 293.348 293.323 293.089 292.796 292.029 292.804 293.083 293.36 293.327 293.087 292.772 292.023 292.798 293.09 293.357 293.332 293.086 292.785 292.032 292.796 293.084 293.351 293.333 293.087 292.79 292.025 292.792 293.085 293.354 293.33 293.092 292.789 292.023 292.8 293.087 293.346 293.316 293.095 292.78 292.031 292.793 293.083 293.349 293.333 293.083 292.782 292.024 292.805 293.085 293.35 293.319 293.096 292.781 292.032 292.787 293.081 293.354 293.33 293.086 292.784 292.029 292.799 293.092 293.347 293.322 293.092 292.781 292.031 292.804 293.096 293.343 293.317 293.087 292.78 292.03 292.789 293.084 293.361 293.33 293.087 292.789 292.024 292.805 293.086 293.342 293.316 293.092 292.788 292.025 292.805 293.09 293.346 293.319 293.093 292.784 292.025 292.8 293.08 293.345 293.339 293.083 292.78 292.022 292.789 293.095 293.343 293.319 293.093 292.783 292.038 292.803 293.076 293.353 293.329 293.083 292.781 292.033 292.802 293.077 293.353 293.33 293.083 292.778 292.026 292.804 293.084 293.342 293.331 293.089 292.791 292.025 292.804 293.082 293.35 293.334 293.119 292.878 292.013 292.745 293.307 293.309 292.742 292.033 292.096 292.419 292.885 293.127 293.344 290.143 290.147 290.144 290.145 290.146 290.146 290.146 290.145 290.145 290.146 290.146 290.144 290.146 290.144 290.145 290.144 290.145 290.146 290.144 290.143 290.143 290.144 290.143 290.146 290.144 290.144 290.146 290.143 290.145 290.144 290.144 290.146 290.146 290.144 290.145 290.144 290.144 290.142 290.144 290.144 290.144 290.144 292.901 292.904 292.91 292.615 292.558 292.563 292.617 292.613 292.564 292.273 292.322 292.309 292.31 292.279 292.321 292.279 292.01 291.989 292.014 292.9 292.9 292.32 292.312 292.009 292.008 291.991 291.991 292.564 292.61 292.017 292.02 291.733 291.702 291.695 291.746 291.741 291.711 291.738 291.716 291.702 292.611 292.56 291.695 291.684 292.312 291.698 292.317 291.695 292.279 291.737 291.736 291.749 291.463 291.409 291.407 292.274 291.459 291.412 291.751 291.413 291.403 292.021 292.006 291.717 291.73 292.313 291.403 291.403 292.31 291.405 291.751 291.413 291.997 291.993 291.707 291.473 291.472 291.74 291.153 291.143 291.146 291.149 291.153 292.007 292.02 291.15 291.693 291.145 291.423 291.437 291.152 291.147 291.695 291.158 291.409 291.157 291.702 292.9 291.476 292.901 291.167 291.167 291.686 291.737 290.945 290.916 290.923 291.407 290.949 290.919 291.157 292.557 292.612 291.166 290.929 290.928 291.414 290.948 291.697 291.751 290.933 291.152 291.424 290.952 292.307 291.164 290.956 291.396 290.938 292.32 290.957 291.713 292.618 292.565 291.708 291.156 292.273 291.477 290.736 290.732 291.153 290.769 290.937 290.739 290.938 290.745 291.393 290.747 292.019 292.003 291.741 291.183 292.273 291.702 290.751 290.952 290.777 290.931 291.142 291.415 290.782 290.749 291.402 292.318 290.949 291.995 291.732 291.189 291.994 290.936 290.752 291.135 291.7 292.315 290.576 290.581 290.579 290.749 290.595 291.402 290.585 290.6 290.928 291.157 290.746 290.602 292.014 291.461 292.023 290.59 290.974 291.705 291.137 290.78 291.699 290.605 290.584 291.406 290.918 290.747 291.144 290.597 291.729 290.581 290.742 290.937 290.446 291.736 290.448 290.451 291.41 291.138 290.478 290.6 290.454 290.744 290.916 291.422 291.736 290.588 290.459 291.154 290.478 290.734 290.598 291.751 290.933 290.455 290.75 291.132 290.588 290.459 291.456 290.918 290.454 291.474 291.182 290.734 290.585 291.704 290.346 291.71 290.348 290.349 290.942 292.919 290.355 290.586 292.909 290.35 290.766 292.564 292.603 290.365 290.46 290.477 291.135 290.923 292.309 290.354 291.188 291.405 290.361 290.743 290.59 291.418 292.315 291.692 290.353 291.703 290.588 290.47 290.452 290.355 290.977 292.003 290.772 292.274 292.001 290.921 291.135 292.606 292.57 290.272 291.16 290.353 290.758 290.468 291.392 290.273 290.268 290.626 291.401 290.276 290.269 290.362 290.603 291.684 292.278 291.7 290.451 290.275 290.752 290.29 291.987 290.918 291.989 290.46 290.757 290.932 290.277 290.347 291.133 292.32 291.144 290.274 290.377 291.387 290.601 291.404 290.625 292.312 290.276 291.688 290.741 291.696 290.737 290.211 292.01 290.923 292.022 290.204 290.475 290.346 290.48 290.203 290.924 291.136 290.215 290.285 290.354 290.273 291.148 291.388 290.586 291.725 290.214 291.419 290.58 291.734 290.738 290.203 290.729 290.344 290.931 290.266 290.93 291.145 291.743 290.352 290.446 291.179 290.452 290.214 290.583 290.27 290.57 291.751 291.459 290.201 291.474 290.759 290.951 290.263 290.737 290.339 291.151 290.201 291.185 290.272 290.351 290.443 291.706 290.97 291.715 290.446 290.574 290.949 290.202 290.262 291.405 291.416 290.203 290.791 290.738 290.61 290.339 290.273 291.146 291.157 290.448 290.346 291.703 291.701 290.58 290.203 292.304 290.931 290.928 290.262 292.555 290.449 291.395 292.615 291.404 290.213 292.315 292.008 292.009 292.9 290.461 290.736 292.904 290.745 290.344 291.146 291.139 290.273 292.27 291.693 291.701 290.579 290.345 290.198 290.584 290.265 290.927 290.92 290.463 291.397 291.406 291.99 292.618 291.995 292.556 292.276 290.451 290.212 290.734 290.737 290.271 290.365 291.156 291.141 290.203 291.698 291.7 290.575 292.328 290.583 290.348 290.266 290.939 290.929 291.425 291.408 292.025 292.313 290.452 292.021 290.204 290.267 291.738 290.456 291.186 290.743 290.738 291.741 291.157 290.349 290.578 290.951 290.2 290.59 290.266 290.36 291.751 291.484 291.473 290.976 290.452 291.76 291.198 290.202 291.166 290.744 290.958 290.47 290.78 290.583 290.281 290.35 290.593 290.265 290.466 290.377 291.717 291.727 290.201 291.442 290.204 291.423 290.471 291.18 290.944 291.166 290.741 290.947 290.586 290.472 290.755 290.369 291.451 290.592 291.723 290.268 291.709 290.205 290.46 291.412 290.352 290.958 291.162 290.268 291.208 290.936 290.738 291.443 290.586 290.201 292.308 291.703 290.778 292.022 290.471 290.589 292.009 291.71 290.957 292.322 290.37 291.421 290.458 292.563 292.617 290.268 291.163 290.201 290.351 292.277 290.206 290.269 291.156 290.585 290.929 290.736 291.412 290.467 292.902 291.686 292.001 291.729 291.985 292.899 290.749 290.588 290.938 292.272 291.163 291.471 290.467 290.216 292.612 292.56 290.355 292.317 290.459 290.369 290.278 290.266 291.735 290.587 292.017 290.205 292.004 290.742 291.689 290.929 291.397 291.152 290.747 290.587 292.307 290.939 290.467 291.163 291.419 291.719 290.948 290.201 290.203 290.276 290.266 290.589 290.352 291.705 290.464 291.403 291.152 290.367 290.46 290.774 290.589 290.75 291.18 290.976 290.95 291.414 290.199 291.702 290.464 290.266 291.713 290.587 291.156 291.415 290.265 290.348 290.601 290.741 290.752 290.352 290.477 291.182 290.2 290.204 291.417 290.931 290.458 291.709 290.939 291.745 290.263 291.154 290.582 290.267 290.601 291.46 290.345 290.205 291.167 290.737 290.749 290.464 291.421 290.204 290.923 290.366 291.709 291.734 290.452 292.02 290.933 292.306 292.012 291.144 290.265 290.583 290.586 290.267 291.413 292.32 290.465 291.158 290.205 290.743 290.745 290.344 291.726 291.697 290.198 291.469 290.929 292.276 292.561 292 292.616 291.988 290.451 290.929 291.144 290.352 290.267 290.586 290.584 291.403 290.203 291.158 291.733 290.266 292.275 290.456 291.694 290.745 290.773 292.902 290.35 292.018 290.952 290.2 292.9 291.418 292.006 292.318 291.156 292.611 290.936 290.458 292.557 290.27 290.584 290.591 290.366 291.416 292.31 291.72 290.464 291.154 291.715 290.953 290.267 290.756 290.213 290.744 290.48 291.408 291.162 290.372 290.215 290.273 290.945 290.581 290.465 290.605 290.934 291.699 291.16 291.464 291.74 290.351 290.211 290.797 290.969 290.274 290.737 291.412 290.274 291.156 290.354 290.502 290.215 290.581 290.629 290.459 291.744 291.712 291.173 290.93 290.2 290.354 290.977 290.278 291.413 290.271 290.787 291.423 290.738 290.202 290.347 290.205 291.16 290.585 290.461 291.703 290.266 290.278 290.204 291.713 291.181 290.644 290.482 290.197 290.356 290.201 290.968 290.933 291.412 290.195 290.205 290.341 292.019 290.256 290.277 290.819 292.011 290.74 291.477 290.442 292.309 290.599 291.734 290.258 291.689 290.586 290.979 291.209 291.183 290.267 290.355 290.336 292.32 290.482 290.258 290.936 290.774 292.004 290.263 291.987 291.442 290.253 290.743 290.604 290.435 290.966 290.258 291.741 290.256 292.285 291.441 290.354 290.328 290.254 290.258 290.562 291.174 291.708 292.608 292.558 290.728 291.177 291.455 290.448 290.606 290.325 290.461 292.026 290.744 292.274 292.014 290.929 290.936 290.351 291.734 290.322 290.556 291.728 290.318 291.152 291.465 290.356 290.6 291.456 290.71 292.309 290.425 290.479 290.32 292.311 290.326 290.896 290.323 290.744 290.323 292.566 290.559 292.628 291.751 291.213 292.917 290.929 292.908 290.593 291.12 290.434 291.731 290.723 290.551 291.385 290.458 291.508 290.88 290.41 290.744 290.414 290.403 291.086 291.726 290.601 290.925 290.537 290.686 290.406 291.766 290.408 291.341 290.422 290.468 290.881 291.162 290.537 290.602 290.744 291.458 291.655 291.063 290.673 290.53 290.924 290.868 291.752 291.305 290.494 290.594 290.515 290.749 291.147 290.508 291.588 290.84 291.053 290.508 290.509 290.667 291.419 290.518 290.512 290.593 290.521 290.924 291.944 291.281 291.713 290.754 290.657 292.018 291.546 291.155 290.823 291.038 290.611 290.649 290.937 291.857 291.406 292.226 290.627 290.75 291.267 291.021 291.71 290.641 290.819 291.519 290.629 291.146 291.997 290.644 290.631 292.324 290.752 291.809 290.639 290.664 290.811 291.412 290.979 291.29 291.004 292.49 292.125 291.504 290.763 291.155 291.709 291.785 290.801 292.015 291.234 291.005 290.944 290.8 291.402 292.08 291.516 290.793 291.188 292.281 290.777 292.614 290.797 292.368 291.712 290.777 291.76 290.81 290.938 290.785 291.503 290.805 291.22 291.042 291.41 292.312 291.198 292.34 290.947 290.992 291.765 291.468 291.707 291.218 290.969 292.548 291.428 291.176 290.98 292.567 290.974 290.96 291.244 291.75 290.977 291.455 292.783 290.961 291.707 290.98 291.165 290.965 290.973 291.485 292.909 291.277 291.163 291.733 291.456 291.212 291.705 291.166 293.08 291.447 291.191 291.467 291.168 292.033 292.008 291.736 291.743 291.192 291.176 291.492 291.223 291.232 291.486 291.182 291.187 291.482 292.009 291.995 291.734 291.759 291.425 291.447 291.413 291.727 292.317 291.738 292.309 291.434 292.027 292.031 291.416 291.442 291.742 291.757 291.426 291.463 291.452 291.462 291.454 291.428 291.433 291.741 292.539 291.729 292.277 291.704 292.296 291.714 292.326 292.311 291.699 291.711 292.615 291.71 292.542 291.724 291.709 291.723 291.719 291.729 291.71 291.705 291.71 292.62 292.021 292.02 292.559 292.746 291.997 291.992 292.01 292.005 292.314 292.325 292.861 292.907 292.012 291.996 292.009 292.279 292.32 292.273 292.304 292.992 292.306 292.318 292.281 292.568 292.608 292.612 292.559 292.565 292.622 292.89 292.91 292.905 292.159 292.185 292.214 292.213 292.209 292.165 292.108 292.408 292.484 292.53 292.529 292.542 292.515 292.493 292.021 292.139 292.085 292.135 292.134 292.137 292.077 293.316 293.413 293.479 293.506 293.503 293.473 293.416 293.41 293.477 293.503 293.496 293.473 293.411 293.292 292.753 293.144 292.885 293.074 292.822 293.123 292.837 293.125 292.855 293.145 292.883 293.072 292.814 292.031 292.149 292.086 292.13 292.129 292.136 292.089 293.326 293.121 292.881 293.441 293.503 293.537 293.534 293.499 293.433 293.059 293.31 292.973 293.221 293.03 293.287 293.03 293.288 293.056 293.309 292.974 293.225 293.445 293.503 293.528 293.531 293.505 293.444 293.329 292.791 293.078 293.278 292.944 293.244 293.184 292.937 292.874 293.245 292.934 293.27 292.957 293.186 292.89 292.03 292.148 292.082 292.123 292.124 292.148 292.09 293.435 293.506 293.536 293.537 293.51 293.45 293.343 293.095 292.797 292.966 293.271 292.941 292.889 293.242 293.185 292.94 293.24 292.96 293.268 292.887 293.182 293.44 293.504 293.535 293.532 293.507 293.445 293.32 292.787 293.093 293.275 292.958 293.247 293.182 292.937 292.88 293.25 292.944 293.283 292.947 293.185 292.89 292.021 292.144 292.082 292.122 292.126 292.136 292.085 293.47 293.519 293.541 293.528 293.509 293.46 293.348 293.098 292.789 292.962 293.279 292.939 292.881 293.242 293.187 292.924 293.247 292.955 293.285 292.863 293.153 293.459 293.516 293.542 293.533 293.501 293.446 293.32 292.797 293.09 293.26 292.964 293.247 293.184 292.936 292.879 293.239 292.935 293.272 292.964 293.152 292.87 292.034 292.14 292.09 292.124 292.124 292.152 292.083 293.463 293.517 293.539 293.536 293.509 293.449 293.343 293.092 292.801 292.969 293.271 292.941 292.885 293.244 293.181 292.936 293.248 292.962 293.269 292.877 293.143 293.459 293.513 293.538 293.535 293.506 293.442 293.318 292.797 293.09 293.285 292.94 293.247 293.181 292.933 292.884 293.236 292.939 293.273 292.953 293.158 292.881 292.024 292.138 292.084 292.125 292.121 292.135 292.084 293.444 293.514 293.531 293.533 293.5 293.44 293.347 293.085 292.799 292.962 293.275 292.936 292.89 293.247 293.192 292.939 293.241 292.962 293.273 292.88 293.183 293.447 293.51 293.543 293.539 293.511 293.446 293.33 292.785 293.083 293.273 292.959 293.244 293.187 292.935 292.883 293.244 292.945 293.266 292.97 293.184 292.882 292.029 292.142 292.089 292.132 292.121 292.15 292.092 293.452 293.516 293.57 293.552 293.521 293.47 293.361 293.081 292.798 292.954 293.274 292.93 292.862 293.233 293.154 292.932 293.242 292.933 293.25 292.883 293.185 293.448 293.509 293.556 293.541 293.504 293.455 293.326 292.792 293.08 293.27 292.96 293.244 293.149 292.933 292.853 293.233 292.945 293.24 292.959 293.185 292.891 292.025 292.144 292.086 292.122 292.12 292.139 292.089 293.444 293.507 293.536 293.529 293.509 293.452 293.344 293.093 292.811 292.953 293.26 292.944 292.885 293.241 293.182 292.943 293.252 292.965 293.279 292.88 293.186 293.453 293.512 293.54 293.537 293.502 293.443 293.318 292.796 293.087 293.274 292.962 293.251 293.186 292.937 292.868 293.251 292.935 293.276 292.963 293.187 292.884 292.026 292.137 292.077 292.115 292.124 292.132 292.079 293.442 293.